# vtk DataFile Version 3.0
2D Temperature Field
ASCII
DATASET UNSTRUCTURED_GRID
POINTS 25 float
0 0 0.0
0 0.025 0.0
0 0.05 0.0
0 0.075 0.0
0 0.1 0.0
0.025 0 0.0
0.025 0.025 0.0
0.025 0.05 0.0
0.025 0.075 0.0
0.025 0.1 0.0
0.05 0 0.0
0.05 0.025 0.0
0.05 0.05 0.0
0.05 0.075 0.0
0.05 0.1 0.0
0.075 0 0.0
0.075 0.025 0.0
0.075 0.05 0.0
0.075 0.075 0.0
0.075 0.1 0.0
0.1 0 0.0
0.1 0.025 0.0
0.1 0.05 0.0
0.1 0.075 0.0
0.1 0.1 0.0
CELLS 16 80
4 0 5 6 1
4 1 6 7 2
4 2 7 8 3
4 3 8 9 4
4 5 10 11 6
4 6 11 12 7
4 7 12 13 8
4 8 13 14 9
4 10 15 16 11
4 11 16 17 12
4 12 17 18 13
4 13 18 19 14
4 15 20 21 16
4 16 21 22 17
4 17 22 23 18
4 18 23 24 19
CELL_TYPES 16
9
9
9
9
9
9
9
9
9
9
9
9
9
9
9
9
POINT_DATA 25
SCALARS Temperature float 1
LOOKUP_TABLE default
1129.35
1087.14
1044.92
1026.24
985.426
1087.14
1054.19
1018.34
1023.99
1026.24
1044.92
1018.34
991.42
1018.34
1044.92
1026.24
1023.99
1018.34
1054.19
1087.14
985.426
1026.24
1044.92
1087.14
1129.35
