# vtk DataFile Version 3.0
2D Temperature Field
ASCII
DATASET UNSTRUCTURED_GRID
POINTS 25 float
0 0 0.0
0.025 0 0.0
0.05 0 0.0
0.075 0 0.0
0.1 0 0.0
0 0.025 0.0
0.025 0.025 0.0
0.05 0.025 0.0
0.075 0.025 0.0
0.1 0.025 0.0
0 0.05 0.0
0.025 0.05 0.0
0.05 0.05 0.0
0.075 0.05 0.0
0.1 0.05 0.0
0 0.075 0.0
0.025 0.075 0.0
0.05 0.075 0.0
0.075 0.075 0.0
0.1 0.075 0.0
0 0.1 0.0
0.025 0.1 0.0
0.05 0.1 0.0
0.075 0.1 0.0
0.1 0.1 0.0
CELLS 16 80
4 0 5 6 1
4 1 6 7 2
4 2 7 8 3
4 3 8 9 4
4 5 10 11 6
4 6 11 12 7
4 7 12 13 8
4 8 13 14 9
4 10 15 16 11
4 11 16 17 12
4 12 17 18 13
4 13 18 19 14
4 15 20 21 16
4 16 21 22 17
4 17 22 23 18
4 18 23 24 19
CELL_TYPES 16
9
9
9
9
9
9
9
9
9
9
9
9
9
9
9
9
POINT_DATA 25
SCALARS Temperature float 1
LOOKUP_TABLE default
458.581
589.647
589.647
458.581
458.581
527.695
642.156
642.156
527.695
527.695
499.902
704.966
913.305
827.334
736.113
685.638
830.033
944.03
830.033
685.638
499.902
704.966
852.645
704.966
499.902
