# vtk DataFile Version 3.0
2D Temperature Field
ASCII
DATASET UNSTRUCTURED_GRID
POINTS 25 float
0 0 0.0
0 0.025 0.0
0 0.05 0.0
0 0.075 0.0
0 0.1 0.0
0.025 0 0.0
0.025 0.025 0.0
0.025 0.05 0.0
0.025 0.075 0.0
0.025 0.1 0.0
0.05 0 0.0
0.05 0.025 0.0
0.05 0.05 0.0
0.05 0.075 0.0
0.05 0.1 0.0
0.075 0 0.0
0.075 0.025 0.0
0.075 0.05 0.0
0.075 0.075 0.0
0.075 0.1 0.0
0.1 0 0.0
0.1 0.025 0.0
0.1 0.05 0.0
0.1 0.075 0.0
0.1 0.1 0.0
CELLS 16 80
4 0 5 6 1
4 1 6 7 2
4 2 7 8 3
4 3 8 9 4
4 5 10 11 6
4 6 11 12 7
4 7 12 13 8
4 8 13 14 9
4 10 15 16 11
4 11 16 17 12
4 12 17 18 13
4 13 18 19 14
4 15 20 21 16
4 16 21 22 17
4 17 22 23 18
4 18 23 24 19
CELL_TYPES 16
9
9
9
9
9
9
9
9
9
9
9
9
9
9
9
9
POINT_DATA 25
SCALARS Temperature float 1
LOOKUP_TABLE default
777.464
568.296
408.738
374.979
204.602
568.296
421.666
295.44
356.152
374.979
408.738
295.44
180.291
295.44
408.738
374.979
356.152
295.44
421.666
568.296
204.602
374.979
408.738
568.296
777.464
